Title: Voltage regulator test circuit 
Date: Sun Nov 22 09:29:14  2020
Plotname: Transient Analysis
Flags: real
No. Variables: 11
No. Points: 2053    
Variables:
	0	time	time
	1	v(vin)	voltage
	2	v(ven)	voltage
	3	v(vout)	voltage
	4	v(vgen)	voltage
	5	v(vsw)	voltage
	6	v(vcl)	voltage
	7	v(vnen)	voltage
	8	v(vuvlo)	voltage
	9	i(v2)	current
	10	i(v1)	current
Values:
0		0.000000000000000e+00
	0.000000000000000e+00
	0.000000000000000e+00
	-1.557523787431594e-75
	6.263340251580924e-20
	-1.335720079581842e-66
	9.122875515240735e-72
	-6.424384916403436e-32
	1.109311438075567e-20
	0.000000000000000e+00
	5.520985840694560e-31
1		1.000000000000000e-08
	0.000000000000000e+00
	0.000000000000000e+00
	-1.419138862703598e-71
	6.263340126314088e-20
	-7.668980556911503e-70
	-4.491087665512043e-71
	1.008406133394425e-27
	1.109311216210961e-20
	0.000000000000000e+00
	6.364180691347597e-32
2		2.000000000000000e-08
	0.000000000000000e+00
	0.000000000000000e+00
	-1.420561542568572e-71
	6.263340001047252e-20
	-1.464391269671582e-71
	-1.423706860844283e-71
	1.925197217053039e-27
	1.109310994346387e-20
	0.000000000000000e+00
	6.455859722500678e-32
3		4.000000000000000e-08
	0.000000000000000e+00
	0.000000000000000e+00
	-1.420503376745790e-71
	6.263339750513585e-20
	-1.376726000178738e-71
	-1.417362999448797e-71
	3.592089544138806e-27
	1.109310550617343e-20
	0.000000000000000e+00
	6.622548704864834e-32
4		8.000000000000000e-08
	0.000000000000000e+00
	0.000000000000000e+00
	-1.420380248616902e-71
	6.263339249445594e-20
	-1.464131565209151e-71
	-1.423518201863790e-71
	6.092425169368710e-27
	1.109309663160976e-20
	0.000000000000000e+00
	6.872581766319576e-32
5		1.600000000000000e-07
	0.000000000000000e+00
	0.000000000000000e+00
	-1.420140821403621e-71
	6.263338247307660e-20
	-1.376402621707398e-71
	-1.417004123368770e-71
	8.949942678928477e-27
	1.109307888247727e-20
	0.000000000000000e+00
	7.158332515137117e-32
6		3.200000000000000e-07
	0.000000000000000e+00
	0.000000000000000e+00
	-1.419655295148290e-71
	6.263336243030202e-20
	-1.463387030718727e-71
	-1.422791409566081e-71
	1.085492908133632e-26
	1.109304338427207e-20
	0.000000000000000e+00
	7.348829151100587e-32
7		6.400000000000000e-07
	0.000000000000000e+00
	0.000000000000000e+00
	-1.418691529602460e-71
	6.263332234489056e-20
	-1.374963118520362e-71
	-1.415555750760772e-71
	1.114793735202555e-26
	1.109297238842315e-20
	0.000000000000000e+00
	7.378125969634300e-32
8		1.280000000000000e-06
	0.000000000000000e+00
	0.000000000000000e+00
	-1.416759176945587e-71
	6.263324217426292e-20
	-1.460486018594344e-71
	-1.419894831780226e-71
	1.106405734474577e-26
	1.109283039880360e-20
	0.000000000000000e+00
	7.369729951845786e-32
9		2.560000000000000e-06
	0.000000000000000e+00
	0.000000000000000e+00
	-1.412909136345790e-71
	6.263308183287760e-20
	-1.369183171950910e-71
	-1.409773587208625e-71
	1.111356232657661e-26
	1.109254642573645e-20
	0.000000000000000e+00
	7.374664415877759e-32
10		5.120000000000000e-06
	0.000000000000000e+00
	0.000000000000000e+00
	-1.405233644431329e-71
	6.263276115090048e-20
	-1.448959262451294e-71
	-1.408369184268555e-71
	1.107402893728113e-26
	1.109197850015360e-20
	0.000000000000000e+00
	7.370679008786210e-32
11		1.024000000000000e-05
	0.000000000000000e+00
	0.000000000000000e+00
	-1.390014129760409e-71
	6.263211978920890e-20
	-1.346288776548142e-71
	-1.386878637826331e-71
	1.110746410068051e-26
	1.109084273101473e-20
	0.000000000000000e+00
	7.373958389013791e-32
12		2.024000000000000e-05
	0.000000000000000e+00
	0.000000000000000e+00
	-1.360754901480384e-71
	6.263086714622400e-20
	-1.404480210245393e-71
	-1.363890411911152e-71
	1.107267711918690e-26
	1.108862477147480e-20
	0.000000000000000e+00
	7.370354427119070e-32
13		3.024000000000000e-05
	0.000000000000000e+00
	0.000000000000000e+00
	-1.332116001310992e-71
	6.262961453055167e-20
	-1.288390855622311e-71
	-1.328980528386768e-71
	1.110175157812835e-26
	1.108640726817917e-20
	0.000000000000000e+00
	7.373136611861372e-32
14		4.023999999999999e-05
	0.000000000000000e+00
	0.000000000000000e+00
	-1.304075411627837e-71
	6.262836193993159e-20
	-1.347800510372869e-71
	-1.307210901870051e-71
	1.106946971097136e-26
	1.108419020833667e-20
	0.000000000000000e+00
	7.369783165996274e-32
15		5.023999999999999e-05
	0.000000000000000e+00
	0.000000000000000e+00
	-1.276629500150519e-71
	6.262710937436330e-20
	-1.232904562036958e-71
	-1.273494046260850e-71
	1.109613888354950e-26
	1.108197359186215e-20
	0.000000000000000e+00
	7.372324826697243e-32
16		6.023999999999999e-05
	0.000000000000000e+00
	0.000000000000000e+00
	-1.249756789183952e-71
	6.262585683384630e-20
	-1.293481677961468e-71
	-1.252892259262011e-71
	1.106616969003207e-26
	1.107975741866677e-20
	0.000000000000000e+00
	7.369202653293784e-32
17		7.023999999999999e-05
	0.000000000000000e+00
	0.000000000000000e+00
	-1.223454174911379e-71
	6.262460431838006e-20
	-1.179729444422288e-71
	-1.220318740079930e-71
	1.109061862498375e-26
	1.107754168866158e-20
	0.000000000000000e+00
	7.371522295242305e-32
18		8.023999999999999e-05
	0.000000000000000e+00
	0.000000000000000e+00
	-1.197700697079444e-71
	6.262335182796410e-20
	-1.241425375939764e-71
	-1.200836147016735e-71
	1.106278433917185e-26
	1.107532640175824e-20
	0.000000000000000e+00
	7.368613617619504e-32
19		9.023999999999999e-05
	0.000000000000000e+00
	0.000000000000000e+00
	-1.172493758320841e-71
	6.262209936259792e-20
	-1.128769235503475e-71
	-1.169358342570289e-71
	1.108518382572689e-26
	1.107311155786787e-20
	0.000000000000000e+00
	7.370728319738368e-32
20		9.999999999999999e-05
	0.000000000000000e+00
	0.000000000000000e+00
	-1.148399095517981e-71
	6.262087698065107e-20
	-1.192123561955169e-71
	-1.151534525101905e-71
	1.105938487655832e-26
	1.107095028985971e-20
	0.000000000000000e+00
	7.368026186595930e-32
21		1.003314084177641e-04
	1.657042088820671e-02
	0.000000000000000e+00
	8.093099719959145e-16
	7.614805893732572e-09
	2.104858744514466e-15
	8.622135427572242e-16
	1.272940186700028e-02
	5.849647586867306e-08
	0.000000000000000e+00
	-3.841062579112986e-09
22		1.009942252532924e-04
	4.971126266461943e-02
	0.000000000000000e+00
	3.669170116000538e-15
	3.453350741617365e-08
	6.953495288025033e-15
	3.803286545643267e-15
	4.408952897898905e-02
	2.904045603788611e-07
	0.000000000000000e+00
	-5.621842547043343e-09
23		1.023198589243489e-04
	1.159929462174449e-01
	0.000000000000000e+00
	1.662886226929701e-14
	1.566512967766466e-07
	2.373298803809132e-14
	1.691896166807904e-14
	1.114515189520013e-01
	1.442206077928025e-06
	0.000000000000000e+00
	-4.541689690995554e-09
24		1.038289342215639e-04
	1.914467110781976e-01
	0.000000000000000e+00
	4.281107504599117e-14
	4.037158367426969e-07
	5.416969252051117e-14
	4.327490892098608e-14
	1.860951844721381e-01
	3.838120418812642e-06
	0.000000000000000e+00
	-5.351949994292227e-09
25		1.068470848159940e-04
	3.423542407997028e-01
	0.000000000000000e+00
	1.311398197156128e-13
	1.239437254804053e-06
	1.510073916021603e-13
	1.319511207749246e-13
	3.376615644504125e-01
	1.204324722513542e-05
	0.000000000000000e+00
	-4.693390565080335e-09
26		1.128833860048543e-04
	6.441693002427133e-01
	0.000000000000000e+00
	4.505074663041922e-13
	4.277237141074259e-06
	4.873929799076606e-13
	4.520137053383931e-13
	6.388807239641489e-01
	4.211649335848624e-05
	0.000000000000000e+00
	-5.289848559186794e-09
27		1.228833860048543e-04
	1.144169300242713e+00
	0.000000000000000e+00
	1.392571471876649e-12
	-3.491283346198336e-08
	1.457649633091508e-12
	1.395228977845548e-12
	1.139444796898754e+00
	1.320119968288814e-04
	0.000000000000000e+00
	-4.726871338789351e-09
28		1.328833860048543e-04
	1.644169300242713e+00
	0.000000000000000e+00
	2.841006405858164e-12
	-5.580702905324993e-09
	2.934277245574500e-12
	2.844815185396588e-12
	1.638901864008329e+00
	-3.984884252737284e-08
	0.000000000000000e+00
	-5.270976544125006e-09
29		1.428833860048543e-04
	2.144169300242714e+00
	0.000000000000000e+00
	4.785154183648229e-12
	2.800447024014700e-09
	4.906617692813778e-12
	4.790114240430628e-12
	2.139422524897139e+00
	-1.425361484993625e-08
	0.000000000000000e+00
	-4.751200322061777e-09
30		1.528833860048543e-04
	2.644169300242714e+00
	0.000000000000000e+00
	7.214581051784026e-12
	6.450324958544245e-10
	7.364237260829076e-12
	7.220692392228227e-12
	2.638921301661452e+00
	9.709600401809710e-09
	0.000000000000000e+00
	-5.254150892142206e-09
31		1.628833860048543e-04
	3.144169300242714e+00
	0.000000000000000e+00
	1.011907286623347e-11
	2.092989787185580e-09
	1.029692176565589e-11
	1.012633549380152e-11
	3.139401888702276e+00
	-7.075304993995526e-10
	0.000000000000000e+00
	-4.773937689606100e-09
32		1.728833860048543e-04
	3.644169300242713e+00
	0.000000000000000e+00
	1.348863047003739e-11
	7.953789159849984e-10
	1.369467208982701e-11
	1.349704439093913e-11
	3.638939167792608e+00
	6.495404431822979e-09
	0.000000000000000e+00
	-5.237779987510294e-09
33		1.828833860048543e-04
	4.144169300242713e+00
	0.000000000000000e+00
	1.731346516829841e-11
	1.813116661538098e-09
	1.754769949852181e-11
	1.732303038579238e-11
	4.139382762401056e+00
	2.601039066973592e-10
	0.000000000000000e+00
	-4.794856067746878e-09
34		1.928833860048542e-04
	4.644169300242713e+00
	0.000000000000000e+00
	2.158399429834968e-11
	8.796761699685782e-10
	2.184642136857448e-11
	2.159471081844639e-11
	4.638955583241565e+00
	5.215512920088556e-09
	0.000000000000000e+00
	-5.224137566983700e-09
35		2.000000000000000e-04
	5.000000000000000e+00
	0.000000000000000e+00
	2.488971568533357e-11
	1.687163771905968e-09
	2.517220642918009e-11
	2.490125154457413e-11
	4.995192642761711e+00
	6.814473746041787e-10
	0.000000000000000e+00
	-4.817593435291201e-09
36		2.010000000000000e-04
	5.000000000000000e+00
	0.000000000000000e+00
	2.536861165186146e-11
	1.298313862595193e-09
	2.565110242753445e-11
	2.538014751756449e-11
	4.999558413336558e+00
	2.772377573977485e-09
	0.000000000000000e+00
	-4.520188667811453e-10
37		2.030000000000000e-04
	5.000000000000000e+00
	0.000000000000000e+00
	2.632437050963136e-11
	1.291516467829687e-09
	2.660686130613290e-11
	2.633590638516711e-11
	5.000352189083090e+00
	2.808620692989296e-09
	0.000000000000000e+00
	3.419700078666210e-10
38		2.070000000000000e-04
	5.000000000000000e+00
	0.000000000000000e+00
	2.822374145030539e-11
	1.293240502897426e-09
	2.850623228819850e-11
	2.823527734538151e-11
	4.999671809770626e+00
	2.808008985101814e-09
	0.000000000000000e+00
	-3.383320290595293e-10
39		2.150000000000000e-04
	5.000000000000000e+00
	0.000000000000000e+00
	3.197440864082866e-11
	1.292871119757287e-09
	3.225689956045730e-11
	3.198594457449103e-11
	5.000302405290052e+00
	2.808592764067330e-09
	0.000000000000000e+00
	2.919477992691100e-10
40		2.250000000000000e-04
	5.000000000000000e+00
	0.000000000000000e+00
	3.657393066975803e-11
	1.293240540462882e-09
	3.685642168962063e-11
	3.658546665073954e-11
	4.999699630124538e+00
	2.808024594089211e-09
	0.000000000000000e+00
	-3.110471880063415e-10
41		2.350000000000000e-04
	5.000000000000000e+00
	0.000000000000000e+00
	4.107664205623328e-11
	1.292879460870963e-09
	4.135913317422098e-11
	4.108817808353797e-11
	5.000278767058540e+00
	2.808579501289715e-09
	0.000000000000000e+00
	2.683009370230138e-10
42		2.450000000000000e-04
	5.000000000000000e+00
	0.000000000000000e+00
	4.548458046856236e-11
	1.293234130405679e-09
	4.576707168260850e-11
	4.549611654121510e-11
	4.999722341354586e+00
	2.808037336953440e-09
	0.000000000000000e+00
	-2.883098204620183e-10
43		2.550000000000000e-04
	5.000000000000000e+00
	0.000000000000000e+00
	4.979974068632462e-11
	1.292885715793678e-09
	5.008223199440868e-11
	4.981127680337111e-11
	5.000256946464091e+00
	2.808567257942941e-09
	0.000000000000000e+00
	2.464730641804636e-10
44		2.650000000000000e-04
	5.000000000000000e+00
	0.000000000000000e+00
	5.402407550299224e-11
	1.293228159850704e-09
	5.430656690313406e-11
	5.403561166349788e-11
	4.999743306240287e+00
	2.808049100371632e-09
	0.000000000000000e+00
	-2.664819476194680e-10
45		2.750000000000001e-04
	5.000000000000000e+00
	0.000000000000000e+00
	5.815949660970896e-11
	1.292891489403310e-09
	5.844198809997154e-11
	5.817103281275925e-11
	5.000236803729964e+00
	2.808555955632688e-09
	0.000000000000000e+00
	2.264641807414591e-10
46		2.850000000000001e-04
	5.000000000000000e+00
	0.000000000000000e+00
	6.220787546034997e-11
	1.293222645887699e-09
	6.249036703883567e-11
	6.221941170504917e-11
	4.999762659064046e+00
	2.808059959656673e-09
	0.000000000000000e+00
	-2.473825588822365e-10
47		2.950000000000001e-04
	5.000000000000000e+00
	0.000000000000000e+00
	6.617104411845023e-11
	1.292896820146878e-09
	6.645353578330231e-11
	6.618258040392191e-11
	5.000218209839727e+00
	2.808545521999342e-09
	0.000000000000000e+00
	2.082742867060006e-10
48		3.050000000000001e-04
	5.000000000000000e+00
	0.000000000000000e+00
	7.005079608641494e-11
	1.293217553524534e-09
	7.033328783581599e-11
	7.006233241180091e-11
	4.999780523782833e+00
	2.808069984330506e-09
	0.000000000000000e+00
	-2.301021595485508e-10
49		3.150000000000002e-04
	5.000000000000000e+00
	0.000000000000000e+00
	7.384888711696699e-11
	1.292901741942895e-09
	7.413137894913747e-11
	7.386042348142713e-11
	5.000201045697461e+00
	2.808535890247394e-09
	0.000000000000000e+00
	1.909938873723149e-10
50		3.250000000000002e-04
	5.000000000000000e+00
	0.000000000000000e+00
	7.756703600771759e-11
	1.293212850446589e-09
	7.784952792091488e-11
	7.757857241042930e-11
	4.999797014822140e+00
	2.808079238569205e-09
	0.000000000000000e+00
	-2.128217602148652e-10
51		3.350000000000002e-04
	5.000000000000000e+00
	0.000000000000000e+00
	8.120692537913390e-11
	1.292906286305987e-09
	8.148941737165306e-11
	8.121846181929221e-11
	5.000185201364943e+00
	2.808526998717476e-09
	0.000000000000000e+00
	1.746229827404022e-10
52		3.450000000000003e-04
	5.000000000000000e+00
	0.000000000000000e+00
	8.477020243594561e-11
	1.293208507134208e-09
	8.505269450611566e-11
	8.478173891276222e-11
	4.999812237808894e+00
	2.808087781614176e-09
	0.000000000000000e+00
	-1.982698449864984e-10
53		3.550000000000003e-04
	5.000000000000000e+00
	0.000000000000000e+00
	8.825847971255496e-11
	1.292910481855726e-09
	8.854097185874375e-11
	8.827001622525846e-11
	5.000170575357476e+00
	2.808518790491414e-09
	0.000000000000000e+00
	1.600710675120354e-10
54		3.650000000000003e-04
	5.000000000000000e+00
	0.000000000000000e+00
	9.167333580284966e-11
	1.293204495658700e-09
	9.195582802345517e-11
	9.168487235068477e-11
	4.999826290248002e+00
	2.808095668151464e-09
	0.000000000000000e+00
	-1.837179297581315e-10
55		3.750000000000003e-04
	5.000000000000000e+00
	0.000000000000000e+00
	9.501631607441441e-11
	1.292914356396088e-09
	9.529880836787192e-11
	9.502785265664163e-11
	5.000157073993871e+00
	2.808511213027652e-09
	0.000000000000000e+00
	1.464286469854414e-10
56		3.850000000000004e-04
	5.000000000000000e+00
	0.000000000000000e+00
	9.828893336779846e-11
	1.293200790989721e-09
	9.857142573257297e-11
	9.830046998369358e-11
	4.999839262146887e+00
	2.808102948662238e-09
	0.000000000000000e+00
	-1.709850039333105e-10
57		3.950000000000004e-04
	5.000000000000000e+00
	0.000000000000000e+00
	1.014926686814507e-10
	1.292917934063176e-09
	1.017751611160422e-10
	1.015042053303053e-10
	5.000144610796404e+00
	2.808504217824667e-09
	0.000000000000000e+00
	1.346052158623934e-10
58		4.050000000000004e-04
	5.000000000000000e+00
	0.000000000000000e+00
	1.046289718419592e-10
	1.293197369032083e-09
	1.049114643448986e-10
	1.046405085230798e-10
	4.999851236591992e+00
	2.808109669745914e-09
	0.000000000000000e+00
	-1.591615728102624e-10
59		4.150000000000004e-04
	5.000000000000000e+00
	0.000000000000000e+00
	1.076992621598599e-10
	1.292921237869430e-09
	1.079817547297082e-10
	1.077107988725671e-10
	5.000133105936922e+00
	2.808497760110514e-09
	0.000000000000000e+00
	1.227817847393453e-10
60		4.250000000000005e-04
	5.000000000000000e+00
	0.000000000000000e+00
	1.107049290720259e-10
	1.293194208244358e-09
	1.109874217073744e-10
	1.107164658156549e-10
	4.999862290280956e+00
	2.808115874418771e-09
	0.000000000000000e+00
	-1.482476363889873e-10
61		4.350000000000005e-04
	5.000000000000000e+00
	0.000000000000000e+00
	1.136473327704872e-10
	1.292924288685644e-09
	1.139298254699568e-10
	1.136588695443870e-10
	5.000122485725532e+00
	2.808491798555807e-09
	0.000000000000000e+00
	1.118678483180702e-10
62		4.450000000000005e-04
	5.000000000000000e+00
	0.000000000000000e+00
	1.165278048180088e-10
	1.293191288921222e-09
	1.168102975802512e-10
	1.165393416215424e-10
	4.999872494013877e+00
	2.808121602389361e-09
	0.000000000000000e+00
	-1.373336999677122e-10
63		4.550000000000005e-04
	5.000000000000000e+00
	0.000000000000000e+00
	1.193476487508161e-10
	1.292927106654731e-09
	1.196301415745089e-10
	1.193591855833601e-10
	5.000112682138608e+00
	2.808486295009206e-09
	0.000000000000000e+00
	1.027729013003409e-10
64		4.650000000000006e-04
	5.000000000000000e+00
	0.000000000000000e+00
	1.221081406681788e-10
	1.293188592294009e-09
	1.223906335520296e-10
	1.221196775291221e-10
	4.999881913146788e+00
	2.808126890312918e-09
	0.000000000000000e+00
	-1.282387529499829e-10
65		4.750000000000006e-04
	5.000000000000000e+00
	0.000000000000000e+00
	1.248105298099670e-10
	1.292929709071114e-09
	1.250930227527093e-10
	1.248220666987121e-10
	5.000103632383095e+00
	2.808481214252873e-09
	0.000000000000000e+00
	9.367795428261161e-11
66		4.850000000000006e-04
	5.000000000000000e+00
	0.000000000000000e+00
	1.274560391220914e-10
	1.293186101267353e-09
	1.277385321224840e-10
	1.274675760380528e-10
	4.999890608010276e+00
	2.808131772026196e-09
	0.000000000000000e+00
	-1.200533006340265e-10
67		4.950000000000006e-04
	5.000000000000000e+00
	0.000000000000000e+00
	1.300458658100597e-10
	1.292932112831030e-09
	1.303283588668911e-10
	1.300574027526649e-10
	5.000095278494312e+00
	2.808476523777100e-09
	0.000000000000000e+00
	8.549250196665525e-11
68		5.050000000000007e-04
	5.000000000000000e+00
	0.000000000000000e+00
	1.325811818806773e-10
	1.293183800142123e-09
	1.328636749927588e-10
	1.325927188493653e-10
	4.999898634295898e+00
	2.808136278764011e-09
	0.000000000000000e+00
	-1.118678483180702e-10
69		5.150000000000007e-04
	5.000000000000000e+00
	0.000000000000000e+00
	1.350631346722105e-10
	1.292934333056178e-09
	1.353456278383798e-10
	1.350746716664325e-10
	5.000087566964679e+00
	2.808472193571803e-09
	0.000000000000000e+00
	7.730704965069890e-11
70		5.250000000000007e-04
	5.000000000000000e+00
	0.000000000000000e+00
	1.374928473738885e-10
	1.293181674090610e-09
	1.377753405930077e-10
	1.375043843931072e-10
	4.999906043412900e+00
	2.808140439359578e-09
	0.000000000000000e+00
	-1.045918907038867e-10
71		5.350000000000008e-04
	5.000000000000000e+00
	0.000000000000000e+00
	1.398714195340197e-10
	1.292936384118387e-09
	1.401539128049736e-10
	1.398829565777087e-10
	5.000080448401000e+00
	2.808468195934635e-09
	0.000000000000000e+00
	7.003109203651547e-11
72		5.450000000000008e-04
	5.000000000000000e+00
	0.000000000000000e+00
	1.421999275574621e-10
	1.293179709984656e-09
	1.424824208791579e-10
	1.422114646251060e-10
	4.999912882817493e+00
	2.808144280428883e-09
	0.000000000000000e+00
	-9.731593308970332e-11
73		5.550000000000008e-04
	5.000000000000000e+00
	0.000000000000000e+00
	1.444794251932293e-10
	1.292938278811586e-09
	1.447619185646023e-10
	1.444909622843247e-10
	5.000073877208090e+00
	2.808464505293266e-09
	0.000000000000000e+00
	6.366462912410498e-11
74		5.650000000000008e-04
	5.000000000000000e+00
	0.000000000000000e+00
	1.467109440110481e-10
	1.293177895233270e-09
	1.469934374310508e-10
	1.467224811251010e-10
	4.999919196316817e+00
	2.808147826541420e-09
	0.000000000000000e+00
	-9.094947017729282e-11
75		5.750000000000009e-04
	5.000000000000000e+00
	0.000000000000000e+00
	1.488954938678546e-10
	1.292940029315269e-09
	1.491779873354640e-10
	1.489070310043816e-10
	5.000067811296733e+00
	2.808461098041776e-09
	0.000000000000000e+00
	5.729816621169448e-11
76		5.850000000000009e-04
	5.000000000000000e+00
	0.000000000000000e+00
	1.510340633654353e-10
	1.293176218429894e-09
	1.513165568796488e-10
	1.510456005239638e-10
	4.999925024349531e+00
	2.808151100377385e-09
	0.000000000000000e+00
	-8.549250196665525e-11
77		5.950000000000009e-04
	5.000000000000000e+00
	0.000000000000000e+00
	1.531276202975434e-10
	1.292941646721262e-09
	1.534101138573795e-10
	1.531391574776101e-10
	5.000062211814097e+00
	2.808457952389363e-09
	0.000000000000000e+00
	5.184119800105691e-11
78		6.050000000000009e-04
	5.000000000000000e+00
	0.000000000000000e+00
	1.551771120875163e-10
	1.293174668972165e-09
	1.554596056920152e-10
	1.551886492886676e-10
	4.999930404244828e+00
	2.808154122873041e-09
	0.000000000000000e+00
	-8.003553375601768e-11
79		6.150000000000010e-04
	5.000000000000000e+00
	0.000000000000000e+00
	1.571834662175644e-10
	1.292943141158639e-09
	1.574659598657878e-10
	1.571950034393569e-10
	5.000057042894879e+00
	2.808455048220794e-09
	0.000000000000000e+00
	4.638422979041934e-11
80		6.250000000000010e-04
	5.000000000000000e+00
	0.000000000000000e+00
	1.591475906483441e-10
	1.293173237019962e-09
	1.594300843393701e-10
	1.591591278903432e-10
	4.999935370461530e+00
	2.808156913354791e-09
	0.000000000000000e+00
	-7.457856554538012e-11
81		6.350000000000010e-04
	5.000000000000000e+00
	0.000000000000000e+00
	1.610703742295392e-10
	1.292944522305049e-09
	1.613528679624660e-10
	1.610819114913194e-10
	5.000052271431582e+00
	2.808452366967563e-09
	0.000000000000000e+00
	4.183675628155470e-11
82		6.450000000000010e-04
	5.000000000000000e+00
	0.000000000000000e+00
	1.629526871025697e-10
	1.293171913549925e-09
	1.632351808765179e-10
	1.629642243837150e-10
	4.999939954808802e+00
	2.808159489662964e-09
	0.000000000000000e+00
	-7.003109203651547e-11
83		6.550000000000011e-04
	5.000000000000000e+00
	0.000000000000000e+00
	1.647953810940207e-10
	1.292945798719058e-09
	1.650778749081241e-10
	1.648069183941232e-10
	5.000047866862459e+00
	2.808449891488990e-09
	0.000000000000000e+00
	3.728928277269006e-11
84		6.650000000000011e-04
	5.000000000000000e+00
	0.000000000000000e+00
	1.665992901011824e-10
	1.293170690365436e-09
	1.668817839545968e-10
	1.666108274198431e-10
	4.999944186649895e+00
	2.808161868266073e-09
	0.000000000000000e+00
	-6.639311322942376e-11
85		6.750000000000011e-04
	5.000000000000000e+00
	0.000000000000000e+00
	1.683652304696771e-10
	1.292946978463843e-09
	1.686477243615757e-10
	1.683767678065056e-10
	5.000043800975756e+00
	2.808447605962332e-09
	0.000000000000000e+00
	3.365130396559834e-11
86		6.850000000000011e-04
	5.000000000000000e+00
	0.000000000000000e+00
	1.700940013626817e-10
	1.293169559537557e-09
	1.703764952922553e-10
	1.701055387172957e-10
	4.999948093090216e+00
	2.808164064366308e-09
	0.000000000000000e+00
	-6.184563972055912e-11
87		6.950000000000012e-04
	5.000000000000000e+00
	0.000000000000000e+00
	1.717863851224585e-10
	1.292948068981383e-09
	1.720688790889119e-10
	1.717979224944832e-10
	5.000040047729022e+00
	2.808445495781571e-09
	0.000000000000000e+00
	3.001332515850663e-11
88		7.050000000000012e-04
	5.000000000000000e+00
	0.000000000000000e+00
	1.734431476245181e-10
	1.293168514101038e-09
	1.737256416270772e-10
	1.734546850135872e-10
	4.999951699150947e+00
	2.808166091996958e-09
	0.000000000000000e+00
	-5.820766091346741e-11
89		7.150000000000012e-04
	5.000000000000000e+00
	0.000000000000000e+00
	1.750650386245154e-10
	1.292949077177055e-09
	1.753475326624196e-10
	1.750765760302706e-10
	5.000036583082299e+00
	2.808443547463776e-09
	0.000000000000000e+00
	2.637534635141492e-11
90		7.250000000000013e-04
	5.000000000000000e+00
	0.000000000000000e+00
	1.766527920971180e-10
	1.293167547562157e-09
	1.769352861696228e-10
	1.766643295192077e-10
	4.999955027929305e+00
	2.808167964112195e-09
	0.000000000000000e+00
	-5.547917680814862e-11
91		7.350000000000013e-04
	5.000000000000000e+00
	0.000000000000000e+00
	1.782071265681033e-10
	1.292950009415860e-09
	1.784896206744793e-10
	1.782186640061834e-10
	5.000033384844140e+00
	2.808441748562812e-09
	0.000000000000000e+00
	2.273736754432321e-11
92		7.450000000000013e-04
	5.000000000000000e+00
	0.000000000000000e+00
	1.797287454398319e-10
	1.293166653715128e-09
	1.800112395793669e-10
	1.797402828935661e-10
	4.999958100746483e+00
	2.808169692670114e-09
	0.000000000000000e+00
	-5.184119800105691e-11
93		7.550000000000013e-04
	5.000000000000000e+00
	0.000000000000000e+00
	1.812183373098191e-10
	1.292950871471760e-09
	1.815008314818166e-10
	1.812298747788784e-10
	5.000030432529480e+00
	2.808440087589441e-09
	0.000000000000000e+00
	2.000888343900442e-11
94		7.650000000000014e-04
	5.000000000000000e+00
	0.000000000000000e+00
	1.826765762816799e-10
	1.293165827042412e-09
	1.829590704854553e-10
	1.826881137657410e-10
	4.999960937284211e+00
	2.808171288709263e-09
	0.000000000000000e+00
	-4.911271389573812e-11
95		7.750000000000014e-04
	5.000000000000000e+00
	0.000000000000000e+00
	1.841041222704313e-10
	1.292951668776042e-09
	1.843866165053180e-10
	1.841156597691791e-10
	5.000027707228416e+00
	2.808438553937992e-09
	0.000000000000000e+00
	1.728039933368564e-11
96		7.850000000000014e-04
	5.000000000000000e+00
	0.000000000000000e+00
	1.855016213013444e-10
	1.293165062380158e-09
	1.857841155666856e-10
	1.855131588144691e-10
	4.999963555710829e+00
	2.808172762419536e-09
	0.000000000000000e+00
	-4.638422979041934e-11
97		7.950000000000014e-04
	5.000000000000000e+00
	0.000000000000000e+00
	1.868697058020233e-10
	1.292952406308402e-09
	1.871522000971766e-10
	1.868812433292226e-10
	5.000025191485094e+00
	2.808437137818267e-09
	0.000000000000000e+00
	1.455191522836685e-11
98		8.050000000000015e-04
	5.000000000000000e+00
	0.000000000000000e+00
	1.882089948889870e-10
	1.293164354910372e-09
	1.884914892133262e-10
	1.882205324299647e-10
	4.999965972797646e+00
	2.808174123207159e-09
	0.000000000000000e+00
	-4.456524038687348e-11
99		8.150000000000015e-04
	5.000000000000000e+00
	0.000000000000000e+00
	1.895200946477091e-10
	1.292953088640956e-09
	1.898025890006223e-10
	1.895316322021755e-10
	5.000022869185902e+00
	2.808435830192868e-09
	0.000000000000000e+00
	1.273292582482100e-11
100		8.250000000000015e-04
	5.000000000000000e+00
	0.000000000000000e+00
	1.908035984065758e-10
	1.293163700338752e-09
	1.910860927874593e-10
	1.908151359742466e-10
	4.999968204026370e+00
	2.808175379755125e-09
	0.000000000000000e+00
	-4.183675628155470e-11
101		8.350000000000015e-04
	5.000000000000000e+00
	0.000000000000000e+00
	1.920600870053338e-10
	1.292953720067860e-09
	1.923425814135993e-10
	1.920716245859309e-10
	5.000020725456258e+00
	2.808434622719307e-09
	0.000000000000000e+00
	1.091393642127514e-11
102		8.450000000000016e-04
	5.000000000000000e+00
	0.000000000000000e+00
	1.932901290584486e-10
	1.293163094547766e-09
	1.935726234935173e-10
	1.933016666517000e-10
	4.999970263688268e+00
	2.808176540078760e-09
	0.000000000000000e+00
	-4.001776687800884e-11
103		8.550000000000016e-04
	5.000000000000000e+00
	0.000000000000000e+00
	1.944942812125612e-10
	1.292954304437424e-09
	1.947767756738740e-10
	1.945058188182013e-10
	5.000018746565336e+00
	2.808433507696587e-09
	0.000000000000000e+00
	8.185452315956354e-12
104		8.650000000000016e-04
	5.000000000000000e+00
	0.000000000000000e+00
	1.956730883977909e-10
	1.293162533727206e-09
	1.959555828847905e-10
	1.956846260155583e-10
	4.999972164975701e+00
	2.808177611577065e-09
	0.000000000000000e+00
	-3.819877747446299e-11
105		8.750000000000016e-04
	5.000000000000000e+00
	0.000000000000000e+00
	1.968270840742948e-10
	1.292954845432776e-09
	1.971095785864447e-10
	1.968386217039343e-10
	5.000016919838121e+00
	2.808432478015884e-09
	0.000000000000000e+00
	6.366462912410498e-12
106		8.850000000000017e-04
	5.000000000000000e+00
	0.000000000000000e+00
	1.979567904741379e-10
	1.293162014540719e-09
	1.982392850109060e-10
	1.979683281153996e-10
	4.999973920066624e+00
	2.808178601080107e-09
	0.000000000000000e+00
	-3.637978807091713e-11
107		8.950000000000017e-04
	5.000000000000000e+00
	0.000000000000000e+00
	1.990627188374031e-10
	1.292955346386159e-09
	1.993452133982721e-10
	1.990742564900422e-10
	5.000015233574225e+00
	2.808431527114935e-09
	0.000000000000000e+00
	5.456968210637569e-12
108		9.050000000000017e-04
	5.000000000000000e+00
	0.000000000000000e+00
	2.001453696437294e-10
	1.293161533727483e-09
	2.004278642281916e-10
	2.001569073075065e-10
	4.999975540202588e+00
	2.808179514892766e-09
	0.000000000000000e+00
	-3.456079866737127e-11
109		9.150000000000017e-04
	5.000000000000000e+00
	0.000000000000000e+00
	2.012052328388780e-10
	1.292955810324533e-09
	2.014877274464374e-10
	2.012167705135592e-10
	5.000013676972942e+00
	2.808430648936131e-09
	0.000000000000000e+00
	3.637978807091713e-12
110		9.250000000000018e-04
	5.000000000000000e+00
	0.000000000000000e+00
	2.022427880560370e-10
	1.293161088290228e-09
	2.025252826862073e-10
	2.022543257413924e-10
	4.999977035760744e+00
	2.808180358835094e-09
	0.000000000000000e+00
	-3.274180926382542e-11
111		9.350000000000018e-04
	5.000000000000000e+00
	0.000000000000000e+00
	2.032585048329089e-10
	1.292956240144898e-09
	2.035409994852137e-10
	2.032700425287137e-10
	5.000012240064068e+00
	2.808429837887635e-09
	0.000000000000000e+00
	1.818989403545856e-12
112		9.450000000000018e-04
	5.000000000000000e+00
	0.000000000000000e+00
	2.042528428243189e-10
	1.293160675604425e-09
	2.045353374982904e-10
	2.042643805303529e-10
	4.999978416320306e+00
	2.808181138279683e-09
	0.000000000000000e+00
	-3.183231456205249e-11
113		9.550000000000019e-04
	5.000000000000000e+00
	0.000000000000000e+00
	2.052262520105757e-10
	1.292956638440240e-09
	2.055087467057623e-10
	2.052377897266241e-10
	5.000010913644044e+00
	2.808429088807585e-09
	0.000000000000000e+00
	9.094947017729282e-13
114		9.650000000000019e-04
	5.000000000000000e+00
	0.000000000000000e+00
	2.061791729009369e-10
	1.293160293064576e-09
	2.064616676168881e-10
	2.061907106267889e-10
	4.999979690723908e+00
	2.808181858185952e-09
	0.000000000000000e+00
	-3.092281986027956e-11
115		9.750000000000019e-04
	5.000000000000000e+00