Title: Voltage regulator test circuit 
Date: Sat Nov 21 10:40:37  2020
Plotname: Transient Analysis
Flags: real
No. Variables: 8
No. Points: 1011    
Variables:
	0	time	time
	1	v(vin)	voltage
	2	v(ven)	voltage
	3	v(vsw)	voltage
	4	v(vcl)	voltage
	5	v(vout)	voltage
	6	i(v2)	current
	7	i(v1)	current
Values:
0		0.000000000000000e+00
	0.000000000000000e+00
	0.000000000000000e+00
	-1.277403017978239e-25
	2.665329451955202e-26
	4.275954228639328e-29
	0.000000000000000e+00
	-8.551908371970086e-31
1		1.000000000000000e-08
	0.000000000000000e+00
	0.000000000000000e+00
	5.454256409568205e-29
	5.454256410152615e-29
	4.841679092400417e-29
	0.000000000000000e+00
	4.946450335182791e-38
2		2.000000000000000e-08
	0.000000000000000e+00
	0.000000000000000e+00
	4.841744452382063e-29
	4.841744451798223e-29
	4.841603388428086e-29
	0.000000000000000e+00
	-4.936391152888444e-38
3		4.000000000000000e-08
	0.000000000000000e+00
	0.000000000000000e+00
	4.841050598677834e-29
	4.841050598678132e-29
	4.841191502241772e-29
	0.000000000000000e+00
	5.314419465743616e-41
4		8.000000000000000e-08
	0.000000000000000e+00
	0.000000000000000e+00
	4.840508621047542e-29
	4.840508621047812e-29
	4.840367655074649e-29
	0.000000000000000e+00
	4.840835609793858e-41
5		1.600000000000000e-07
	0.000000000000000e+00
	0.000000000000000e+00
	4.838579706190071e-29
	4.838579706190317e-29
	4.838720561104769e-29
	0.000000000000000e+00
	4.838253015226615e-41
6		3.200000000000000e-07
	0.000000000000000e+00
	0.000000000000000e+00
	4.835568816183836e-29
	4.835568816184097e-29
	4.835427874592528e-29
	0.000000000000000e+00
	4.835896272727839e-41
7		6.400000000000000e-07
	0.000000000000000e+00
	0.000000000000000e+00
	4.828708557912012e-29
	4.828708557912281e-29
	4.828849400757725e-29
	0.000000000000000e+00
	4.828384372860566e-41
8		1.280000000000000e-06
	0.000000000000000e+00
	0.000000000000000e+00
	4.815860040345406e-29
	4.815860040345624e-29
	4.815719105029805e-29
	0.000000000000000e+00
	4.816197185679912e-41
9		2.560000000000000e-06
	0.000000000000000e+00
	0.000000000000000e+00
	4.789424815963025e-29
	4.789424815963289e-29
	4.789565656152374e-29
	0.000000000000000e+00
	4.789139406154185e-41
10		5.120000000000000e-06
	0.000000000000000e+00
	0.000000000000000e+00
	4.737824466012037e-29
	4.737824466012279e-29
	4.737683532981677e-29
	0.000000000000000e+00
	4.738315530681490e-41
11		1.024000000000000e-05
	0.000000000000000e+00
	0.000000000000000e+00
	4.635455550926019e-29
	4.635455550926232e-29
	4.635596391863605e-29
	0.000000000000000e+00
	4.635777148057893e-41
12		2.024000000000000e-05
	0.000000000000000e+00
	0.000000000000000e+00
	4.442627644427502e-29
	4.442627644427751e-29
	4.442486714672698e-29
	0.000000000000000e+00
	4.445377153216652e-41
13		3.024000000000000e-05
	0.000000000000000e+00
	0.000000000000000e+00
	4.257280871076142e-29
	4.257280871076381e-29
	4.257421715459612e-29
	0.000000000000000e+00
	4.260173339076457e-41
14		4.023999999999999e-05
	0.000000000000000e+00
	0.000000000000000e+00
	4.080206960312196e-29
	4.080206960312424e-29
	4.080066034367899e-29
	0.000000000000000e+00
	4.083405538633742e-41
15		5.023999999999999e-05
	0.000000000000000e+00
	0.000000000000000e+00
	3.909957903950502e-29
	3.909957903950720e-29
	3.910098751477519e-29
	0.000000000000000e+00
	3.912596631610739e-41
16		6.023999999999999e-05
	0.000000000000000e+00
	0.000000000000000e+00
	3.747352768647988e-29
	3.747352768648197e-29
	3.747211846224509e-29
	0.000000000000000e+00
	3.750308176154538e-41
17		7.023999999999999e-05
	0.000000000000000e+00
	0.000000000000000e+00
	3.590969748690539e-29
	3.590969748690740e-29
	3.591110599083482e-29
	0.000000000000000e+00
	3.593375436328475e-41
18		8.023999999999999e-05
	0.000000000000000e+00
	0.000000000000000e+00
	3.441653017598989e-29
	3.441653017599182e-29
	3.441512098430269e-29
	0.000000000000000e+00
	3.444385092275852e-41
19		9.023999999999999e-05
	0.000000000000000e+00
	0.000000000000000e+00
	3.298004834686607e-29
	3.298004834686792e-29
	3.298145687690501e-29
	0.000000000000000e+00
	3.300196493876995e-41
20		1.002400000000000e-04
	0.000000000000000e+00
	0.000000000000000e+00
	3.160892431936089e-29
	3.160892431936265e-29
	3.160751515777770e-29
	0.000000000000000e+00
	3.163419393374072e-41
21		1.102400000000000e-04
	0.000000000000000e+00
	0.000000000000000e+00
	3.028940170618333e-29
	3.028940170618502e-29
	3.029081025999003e-29
	0.000000000000000e+00
	3.030935261960483e-41
22		1.202400000000000e-04
	0.000000000000000e+00
	0.000000000000000e+00
	2.903036459885693e-29
	2.903036459885855e-29
	2.902895546513358e-29
	0.000000000000000e+00
	2.905375041310670e-41
23		1.302400000000000e-04
	0.000000000000000e+00
	0.000000000000000e+00
	2.781825960045333e-29
	2.781825960045488e-29
	2.781966817587710e-29
	0.000000000000000e+00
	2.783640519692598e-41
24		1.402400000000000e-04
	0.000000000000000e+00
	0.000000000000000e+00
	2.666216529603986e-29
	2.666216529604134e-29
	2.666075618811524e-29
	0.000000000000000e+00
	2.668382099135434e-41
25		1.502400000000000e-04
	0.000000000000000e+00
	0.000000000000000e+00
	2.554871472067097e-29
	2.554871472067240e-29
	2.555012331573656e-29
	0.000000000000000e+00
	2.556520227934014e-41
26		1.602400000000000e-04
	0.000000000000000e+00
	0.000000000000000e+00
	2.448716508436677e-29
	2.448716508436814e-29
	2.448575600034791e-29
	0.000000000000000e+00
	2.450723180453842e-41
27		1.702400000000000e-04
	0.000000000000000e+00
	0.000000000000000e+00
	2.346432064662718e-29
	2.346432064662849e-29
	2.346572925952051e-29
	0.000000000000000e+00
	2.347928543151896e-41
28		1.802400000000000e-04
	0.000000000000000e+00
	0.000000000000000e+00
	2.248960266840309e-29
	2.248960266840435e-29
	2.248819360655145e-29
	0.000000000000000e+00
	2.250821004263087e-41
29		1.902400000000000e-04
	0.000000000000000e+00
	0.000000000000000e+00
	2.154997266674218e-29
	2.154997266674339e-29
	2.155138129579714e-29
	0.000000000000000e+00
	2.156353890696387e-41
30		2.002400000000000e-04
	5.996401439568588e-03
	5.996401439568588e-03
	9.128301453218277e-15
	8.678608261868094e-15
	8.659462976451065e-15
	0.000000000000000e+00
	-7.993605777301127e-15
31		2.102400000000000e-04
	2.495568309868657e-01
	2.495568309868657e-01
	2.049485049626625e-01
	1.941368868459202e-01
	1.937051048432545e-01
	0.000000000000000e+00
	-1.859957280269953e-01
32		2.202400000000000e-04
	4.812386782162881e-01
	4.812386782162881e-01
	4.451944241717964e-01
	4.418834299179085e-01
	4.417426553886604e-01
	0.000000000000000e+00
	-5.991807399914251e-02
33		2.302400000000000e-04
	7.016212684235940e-01
	7.016212684235940e-01
	6.586436399451990e-01
	6.496294576072119e-01
	6.492562836336283e-01
	0.000000000000000e+00
	-1.570062645372445e-01
34		2.402400000000000e-04
	9.112556728764665e-01
	9.112556728764665e-01
	8.735351795810377e-01
	8.690888984349397e-01
	8.688963537109783e-01
	0.000000000000000e+00
	-7.986234597103703e-02
35		2.502400000000000e-04
	1.110666086779722e+00
	1.110666086779722e+00
	1.068846788914978e+00
	1.060928230707461e+00
	1.060588325323789e+00
	0.000000000000000e+00
	-1.389561687924470e-01
36		2.602400000000000e-04
	1.300351140036365e+00
	1.300351140036365e+00
	1.261686904732084e+00
	1.256574597359639e+00
	1.256347018854918e+00
	0.000000000000000e+00
	-9.143483928346541e-02
37		2.702400000000000e-04
	1.480785144082070e+00
	1.480785144082070e+00
	1.439632946162627e+00
	1.432398131511057e+00
	1.432074788198198e+00
	0.000000000000000e+00
	-1.275528647468036e-01
38		2.802400000000001e-04
	1.652419277910824e+00
	1.652419277910824e+00
	1.613296933478409e+00
	1.607790704157860e+00
	1.607536292152857e+00
	0.000000000000000e+00
	-9.820824909184012e-02
39		2.902400000000001e-04
	1.815682716257430e+00
	1.815682716257430e+00
	1.775056131898794e+00
	1.768263082865888e+00
	1.767944486446232e+00
	0.000000000000000e+00
	-1.201171635932496e-01
40		3.002400000000001e-04
	1.970983702757878e+00
	1.970983702757878e+00
	1.931599034218962e+00
	1.925873023300833e+00
	1.925594901799586e+00
	0.000000000000000e+00
	-1.019765365952026e-01
41		3.102400000000001e-04
	2.118710570771094e+00
	2.118710570771094e+00
	2.078413732518632e+00
	2.071909836720550e+00
	2.071585612512901e+00
	0.000000000000000e+00
	-1.152275491272121e-01
42		3.202400000000002e-04
	2.259232714414596e+00
	2.259232714414596e+00
	2.219627181836213e+00
	2.213803464115001e+00
	2.213500119755424e+00
	0.000000000000000e+00
	-1.039021810529448e-01
43		3.302400000000002e-04
	2.392901512242212e+00
	2.392901512242212e+00
	2.352776190053206e+00
	2.346472577063980e+00
	2.346131016405464e+00
	0.000000000000000e+00
	-1.119900183448408e-01
44		3.402400000000002e-04
	2.520051205873479e+00
	2.520051205873479e+00
	2.480431273718900e+00
	2.474543817892902e+00
	2.474207281730544e+00
	0.000000000000000e+00
	-1.048340512734285e-01
45		3.502400000000003e-04
	2.640999735771790e+00
	2.640999735771790e+00
	2.601058881032657e+00
	2.594886827822188e+00
	2.594511888778545e+00
	0.000000000000000e+00
	-1.096507313654911e-01
46		3.602400000000003e-04
	2.756049536261168e+00
	2.756049536261168e+00
	2.716429075429433e+00
	2.710519764937929e+00
	2.710131243654160e+00
	0.000000000000000e+00
	-1.051474514556503e-01
47		3.702400000000003e-04
	2.865488291769601e+00
	2.865488291769601e+00
	2.825678198714975e+00
	2.819603830481440e+00
	2.819163039762321e+00
	0.000000000000000e+00
	-1.079501393696773e-01
48		3.802400000000003e-04
	2.969589656189962e+00
	2.969589656189962e+00
	2.929982300364378e+00
	2.924075432371759e+00
	2.923585863637706e+00
	0.000000000000000e+00
	-1.050831874631513e-01
49		3.902400000000004e-04
	3.068613937157281e+00
	3.068613937157281e+00
	3.028899477847874e+00
	3.022900688734773e+00
	3.022301940822755e+00
	0.000000000000000e+00
	-1.066474462336373e-01
50		4.002400000000004e-04
	3.162808746953421e+00
	3.162808746953421e+00
	3.123228070971116e+00
	3.117340331932483e+00
	3.116556670404869e+00
	0.000000000000000e+00
	-1.047480597312642e-01
51		4.102400000000004e-04
	3.252409621666756e+00
	3.252409621666756e+00
	3.212789131169509e+00
	3.206867173031045e+00
	3.205513113088662e+00
	0.000000000000000e+00
	-1.053302974337385e-01
52		4.202400000000004e-04
	3.337640610155084e+00
	3.337640610155084e+00
	3.298513593091478e+00
	3.292996139714004e+00
	3.284150449900785e+00
	0.000000000000000e+00
	-9.839929622648924e-02
53		4.302400000000005e-04
	3.418714834284462e+00
	3.418714834284462e+00
	3.384777499849906e+00
	3.382606560770146e+00
	3.291021780984972e+00
	0.000000000000000e+00
	-3.958112169766537e-02
54		4.402400000000005e-04
	3.495835021844893e+00
	3.495835021844893e+00
	3.457491341639904e+00
	3.452584966672294e+00
	3.286630372663155e+00
	0.000000000000000e+00
	-8.785799323641186e-02
55		4.502400000000005e-04
	3.569194013475389e+00
	3.569194013475389e+00
	3.534440972949159e+00
	3.531850753781795e+00
	3.290248177870283e+00
	0.000000000000000e+00
	-4.709616782793091e-02
56		4.602400000000005e-04
	3.638975244866018e+00
	3.638975244866018e+00
	3.601119850600550e+00
	3.596576855455335e+00
	3.287144526917291e+00
	0.000000000000000e+00
	-8.154719959338763e-02
57		4.702400000000006e-04
	3.705353205442678e+00
	3.705353205442678e+00
	3.670026139890818e+00
	3.667139803944232e+00
	3.289674138955060e+00
	0.000000000000000e+00
	-5.238112163124242e-02
58		4.802400000000006e-04
	3.768493874681544e+00
	3.768493874681544e+00
	3.730944262118909e+00
	3.726657361456323e+00
	3.287450134317424e+00
	0.000000000000000e+00
	-7.708270298780917e-02
59		4.902400000000006e-04
	3.828555137144221e+00
	3.828555137144221e+00
	3.792881563951388e+00
	3.789778612484549e+00
	3.289327692239457e+00
	0.000000000000000e+00
	-5.623038224211996e-02
60		5.002400000000006e-04
	3.885687177271380e+00
	3.885687177271380e+00
	3.848446547772525e+00
	3.844344499958490e+00
	3.287759079650630e+00
	0.000000000000000e+00
	-7.384777054221559e-02
61		5.102400000000007e-04
	3.940032854922089e+00
	3.940032854922089e+00
	3.904112872647644e+00
	3.900856919805522e+00
	3.289081311047904e+00
	0.000000000000000e+00
	-5.894323727170558e-02
62		5.202400000000007e-04
	3.991728062597874e+00
	3.991728062597874e+00
	3.954690496213984e+00
	3.950719188738592e+00
	3.287962068121259e+00
	0.000000000000000e+00
	-7.155551441746866e-02
63		5.302400000000007e-04
	4.040902065244755e+00
	4.040902065244755e+00
	4.004805861435714e+00
	4.001440587547025e+00
	3.288905093592896e+00
	0.000000000000000e+00
	-6.087841704356833e-02
64		5.402400000000007e-04
	4.087677823482946e+00
	4.087677823482946e+00
	4.050781969090015e+00
	4.046903952128693e+00
	3.288103699141006e+00
	0.000000000000000e+00
	-6.991754070122624e-02
65		5.502400000000008e-04
	4.132172301072444e+00
	4.132172301072444e+00
	4.095950508733371e+00
	4.092506837858676e+00
	3.288779497033209e+00
	0.000000000000000e+00
	-6.226449381847488e-02
66		5.602400000000008e-04
	4.174496757383362e+00
	4.174496757383362e+00
	4.137636305964269e+00
	4.133832980946297e+00
	3.288138600461841e+00
	0.000000000000000e+00
	-6.867969058475865e-02
67		5.702400000000008e-04
	4.214757025602302e+00
	4.214757025602302e+00
	4.178384753180084e+00
	4.174884030391955e+00
	3.288628600855984e+00
	0.000000000000000e+00
	-6.332446402393543e-02
68		5.802400000000009e-04
	4.253053777370449e+00
	4.253053777370449e+00
	4.216304270570625e+00
	4.212545155296096e+00
	3.288249659530303e+00
	0.000000000000000e+00
	-6.786442856355279e-02
69		5.902400000000009e-04
	4.289482774515109e+00
	4.289482774515109e+00
	4.253081549757510e+00
	4.249540619294532e+00
	3.288599806601841e+00
	0.000000000000000e+00
	-6.400909810145095e-02
70		6.002400000000009e-04
	4.324135108504164e+00
	4.324135108504164e+00
	4.287452035626536e+00
	4.283725703237296e+00
	3.288316099090874e+00
	0.000000000000000e+00
	-6.726937197163352e-02
71		6.102400000000009e-04
	4.357097428222179e+00
	4.357097428222179e+00
	4.320662185182168e+00
	4.317092140143458e+00
	3.288565822473957e+00
	0.000000000000000e+00
	-6.450967972887156e-02
72		6.202400000000010e-04
	4.388452156637754e+00
	4.388452156637754e+00
	4.351814479506388e+00
	4.348111825685189e+00
	3.288361505210407e+00
	0.000000000000000e+00
	-6.684301253608282e-02
73		6.302400000000010e-04
	4.418277696903878e+00
	4.418277696903878e+00
	4.381816441610494e+00
	4.378225659719510e+00
	3.288539838946777e+00
	0.000000000000000e+00
	-6.486867082821846e-02
74		6.402400000000010e-04
	4.446648628406646e+00
	4.446648628406646e+00
	4.410041924917690e+00
	4.406356366236537e+00
	3.288392481791147e+00
	0.000000000000000e+00
	-6.653708600515529e-02
75		6.502400000000010e-04
	4.473635893252573e+00
	4.473635893252573e+00
	4.437154780785949e+00
	4.433549182769482e+00
	3.288519997426646e+00
	0.000000000000000e+00
	-6.512646684313950e-02
76		6.602400000000011e-04
	4.499306973660813e+00
	4.499306973660813e+00
	4.462721682644966e+00
	4.459048444213300e+00
	3.288413892298550e+00
	0.000000000000000e+00
	-6.631757198465493e-02
77		6.702400000000011e-04
	4.523726060703854e+00
	4.523726060703854e+00
	4.487230104783800e+00
	4.483613910321631e+00
	3.288505161006643e+00
	0.000000000000000e+00
	-6.531151476156083e-02
78		6.802400000000011e-04
	4.546954214818639e+00
	4.546954214818639e+00
	4.510383869584206e+00
	4.506719500549497e+00
	3.288428832676290e+00
	0.000000000000000e+00
	-6.616003760063904e-02
79		6.902400000000011e-04
	4.569049518489460e+00
	4.569049518489460e+00
	4.532542606033823e+00
	4.528918827000333e+00
	3.288494205540739e+00
	0.000000000000000e+00
	-6.544431352267566e-02
80		7.002400000000012e-04
	4.590067221484424e+00
	4.590067221484424e+00
	4.553507386449487e+00
	4.549849397841894e+00
	3.288439335255424e+00
	0.000000000000000e+00
	-6.604696534122922e-02
81		7.102400000000012e-04
	4.610059879008650e+00
	4.610059879008650e+00
	4.573544948686712e+00
	4.569915737963405e+00
	3.288486184768545e+00
	0.000000000000000e+00
	-6.553959687244060e-02
82		7.202400000000012e-04
	4.629077483119659e+00
	4.629077483119659e+00
	4.592525081004029e+00
	4.588871680139557e+00
	3.288446759256902e+00
	0.000000000000000e+00
	-6.596579321831086e-02
83		7.302400000000012e-04
	4.647167587733557e+00
	4.647167587733557e+00
	4.610646825124370e+00
	4.607013723174419e+00
	3.288480347031914e+00
	0.000000000000000e+00
	-6.560794982760854e-02
84		7.402400000000013e-04
	4.664375427534592e+00
	4.664375427534592e+00
	4.627828304453473e+00
	4.624178201401474e+00
	3.288452028741385e+00
	0.000000000000000e+00
	-6.590751139447093e-02
85		7.502400000000013e-04
	4.680744031085433e+00
	4.680744031085433e+00
	4.644219043980748e+00
	4.640583153873052e+00
	3.288476115559491e+00
	0.000000000000000e+00
	-6.565697409496352e-02
86		7.602400000000013e-04
	4.696314328420979e+00
	4.696314328420979e+00
	4.659770966628807e+00
	4.656123233835539e+00
	3.288455780313355e+00
	0.000000000000000e+00
	-6.586565671022981e-02
87		7.702400000000014e-04
	4.711125253394775e+00
	4.711125253394775e+00
	4.674597215735628e+00
	4.670959327743793e+00
	3.288473057210490e+00
	0.000000000000000e+00
	-6.569212754493492e-02
88		7.802400000000014e-04
	4.725213841033922e+00
	4.725213841033922e+00
	4.688673165629898e+00
	4.685027136417054e+00
	3.288458457132401e+00
	0.000000000000000e+00
	-6.583559223327029e-02
89		7.902400000000014e-04
	4.738615320145936e+00
	4.738615320145936e+00
	4.702085084649504e+00
	4.698445765146610e+00
	3.288470851248781e+00
	0.000000000000000e+00
	-6.571732813245035e-02
90		8.002400000000014e-04
	4.751363201409115e+00
	4.751363201409115e+00
	4.714824448256828e+00
	4.711179643589245e+00
	3.288460370167433e+00
	0.000000000000000e+00
	-6.581399085735029e-02
91		8.102400000000015e-04
	4.763489361166693e+00
	4.763489361166693e+00
	4.726957544953764e+00
	4.723317199935776e+00
	3.288469262405971e+00
	0.000000000000000e+00
	-6.573538801330869e-02
92		8.202400000000015e-04
	4.775024121134297e+00
	4.775024121134297e+00
	4.738486745497199e+00
	4.734842821227157e+00
	3.288461738943710e+00
	0.000000000000000e+00
	-6.579846508793707e-02
93		8.302400000000015e-04
	4.785996324220035e+00
	4.785996324220035e+00
	4.749463372735534e+00
	4.745822293267557e+00
	3.288468119220403e+00
	0.000000000000000e+00
	-6.574832543356024e-02
94		8.402400000000015e-04
	4.796433406646786e+00
	4.796433406646786e+00
	4.759897019384667e+00
	4.756253728288206e+00
	3.288462719126926e+00
	0.000000000000000e+00
	-6.578730153523793e-02
95		8.502400000000016e-04
	4.806361466557052e+00
	4.806361466557052e+00
	4.769827700712635e+00
	4.766186095469813e+00
	3.288467297293102e+00
	0.000000000000000e+00
	-6.575758874441817e-02
96		8.602400000000016e-04
	4.815805329271902e+00
	4.815805329271902e+00
	4.779269651960099e+00
	4.775626816438705e+00
	3.288463421463717e+00
	0.000000000000000e+00
	-6.577927049693244e-02
97		8.702400000000016e-04
	4.824788609367213e+00
	4.824788609367213e+00
	4.788254260026441e+00
	4.784612278608489e+00
	3.288466706654296e+00
	0.000000000000000e+00
	-6.576421723912063e-02
98		8.802400000000016e-04
	4.833333769722405e+00
	4.833333769722405e+00
	4.796798602910775e+00
	4.793156095372503e+00
	3.288463924933255e+00
	0.000000000000000e+00
	-6.577348934115435e-02
99		8.902400000000017e-04
	4.841462177689339e+00
	4.841462177689339e+00
	4.804927410751572e+00
	4.801285160393923e+00
	3.288466282379398e+00
	0.000000000000000e+00
	-6.576895662146853e-02
100		9.002400000000017e-04
	4.849194158521834e+00
	4.849194158521834e+00
	4.812659359195631e+00
	4.809017087960786e+00
	3.288464285958408e+00
	0.000000000000000e+00
	-6.576932449843298e-02
101		9.102400000000017e-04
	4.856549046199378e+00
	4.856549046199378e+00
	4.820013980773496e+00
	4.816371538329310e+00
	3.288465977691094e+00
	0.000000000000000e+00
	-6.577234189626324e-02
102		9.202400000000017e-04
	4.863545231772155e+00
	4.863545231772155e+00
	4.827010697299607e+00
	4.823368596477712e+00
	3.288464544898774e+00
	0.000000000000000e+00
	-6.576632114501990e-02
103		9.302400000000018e-04
	4.870200209348249e+00
	4.870200209348249e+00
	4.833664930882494e+00
	4.830022351415407e+00
	3.288465758924803e+00
	0.000000000000000e+00
	-6.577475686935941e-02
104		9.402400000000018e-04
	4.876530619838022e+00
	4.876530619838022e+00
	4.839996276513066e+00
	4.836354298733550e+00
	3.288464730650365e+00
	0.000000000000000e+00
	-6.576415273684688e-02
105		9.502400000000018e-04
	4.882552292565062e+00
	4.882552292565062e+00
	4.846016862314793e+00
	4.842374185261876e+00
	3.288465601872185e+00
	0.000000000000000e+00
	-6.577647684298427e-02
106		9.602400000000019e-04
	4.888280284847736e+00
	4.888280284847736e+00
	4.851746079699911e+00
	4.848104190892760e+00
	3.288464863915321e+00
	0.000000000000000e+00
	-6.576258479890384e-02
107		9.702400000000019e-04
	4.893728919650328e+00
	4.893728919650328e+00
	4.857193381494979e+00
	4.853550635087817e+00
	3.288465489135155e+00
	0.000000000000000e+00
	-6.577769926207111e-02
108		9.802400000000018e-04
	4.898911821397912e+00
	4.898911821397912e+00
	4.862377716330183e+00
	4.858735891978323e+00
	3.288464959532444e+00
	0.000000000000000e+00
	-6.576144894006575e-02
109		9.902400000000018e-04
	4.903841950044511e+00
	4.903841950044511e+00
	4.867306335390893e+00
	4.863663539826601e+00
	3.288465408214897e+00
	0.000000000000000e+00
	-6.577856571038865e-02
110		1.000240000000002e-03
	4.908531633479729e+00
	4.908531633479729e+00
	4.871997601069453e+00
	4.868355823518345e+00
	3.288465028141521e+00
	0.000000000000000e+00
	-6.576062420754170e-02
111		1.010240000000002e-03
	4.912992598354903e+00
	4.912992598354903e+00
	4.876456929661438e+00
	4.872814099377581e+00
	3.288465350134987e+00
	0.000000000000000e+00
	-6.577917769027408e-02
112		1.020240000000002e-03
	4.917235999405831e+00
	4.917235999405831e+00
	4.880702019894491e+00
	4.877060276420299e+00
	3.288465077373376e+00
	0.000000000000000e+00
	-6.576002370366041e-02
113		1.030240000000002e-03
	4.921272447345432e+00
	4.921272447345432e+00
	4.884736740653664e+00
	4.881093885960071e+00
	3.288465308450127e+00
	0.000000000000000e+00
	-6.577960794948012e-02
114		1.040240000000002e-03
	4.925112035396046e+00
	4.925112035396046e+00
	4.888578094531206e+00
	4.884936375953966e+00
	3.288465112701790e+00
	0.000000000000000e+00
	-6.575958497160173e-02
115		1.050240000000002e-03
	4.928764364527750e+00
	4.928764364527750e+00
	4.892228631279829e+00
	4.888585759528955e+00
	3.288465278533015e+00
	0.000000000000000e+00
	-6.577990861478611e-02
116		1.060240000000002e-03
	4.932238567465790e+00
	4.932238567465790e+00
	4.895704654952191e+00
	4.892062954639834e+00
	3.288465138053760e+00
	0.000000000000000e+00
	-6.575926310870273e-02
117		1.070240000000002e-03
	4.935543331527139e+00
	4.935543331527139e+00
	4.899007579870506e+00
	4.895364696296949e+00
	3.288465257061980e+00
	0.000000000000000e+00
	-6.578011701367359e-02
118		1.080240000000002e-03
	4.938686920343327e+00
	4.938686920343327e+00
	4.902153028731332e+00
	4.898511341884555e+00
	3.288465156246841e+00
	0.000000000000000e+00
	-6.575902581880655e-02
119		1.090240000000002e-03
	4.941677194523817e+00
	4.941677194523817e+00
	4.905141430247174e+00
	4.901498538569691e+00
	3.288465241652799e+00
	0.000000000000000e+00
	-6.578025986345892e-02
120		1.100240000000002e-03
	4.944521631311623e+00
	4.944521631311623e+00
	4.907987755199466e+00
	4.904346078338011e+00
	3.288465169302727e+00
	0.000000000000000e+00
	-6.575884985886660e-02
121		1.110240000000002e-03
	4.947227343280317e+00
	4.947227343280317e+00
	4.910691570484905e+00
	4.907048673337944e+00
	3.288465230594129e+00
	0.000000000000000e+00
	-6.578035627535428e-02
122		1.120240000000002e-03
	4.949801096119161e+00
	4.949801096119161e+00
	4.913267231579796e+00
	4.909625562173471e+00
	3.288465178672067e+00
	0.000000000000000e+00
	-6.575871848326642e-02
123		1.130240000000002e-03
	4.952249325550864e+00
	4.952249325550864e+00
	4.915713547131863e+00
	4.912070646375052e+00
	3.288465222657722e+00
	0.000000000000000e+00
	-6.578041990997008e-02
124		1.140240000000002e-03
	4.954578153424228e+00
	4.954578153424228e+00
	4.918044297593784e+00
	4.914402633797344e+00
	3.288465185395889e+00
	0.000000000000000e+00
	-6.575861962483032e-02
125		1.150240000000002e-03
	4.956793403021968e+00
	4.956793403021968e+00
	4.920257621013698e+00
	4.916614717953580e+00
	3.288465216962123e+00
	0.000000000000000e+00
	-6.578046051254205e-02
126		1.160240000000002e-03
	4.958900613621952e+00
	4.958900613621952e+00
	4.922366764403473e+00
	4.918725104865932e+00
	3.288465190221158e+00
	0.000000000000000e+00
	-6.575854457514652e-02
127		1.170240000000002e-03
	4.960905054348277e+00
	4.960905054348277e+00
	4.924369270171141e+00
	4.920726365719904e+00
	3.288465212874633e+00
	0.000000000000000e+00
	-6.578048503797618e-02
128		1.180240000000002e-03
	4.962811737346825e+00
	4.962811737346825e+00
	4.926277893198180e+00
	4.922636236925931e+00
	3.288465193683987e+00
	0.000000000000000e+00
	-6.575848703232623e-02
129		1.190240000000002e-03
	4.964625430318240e+00
	4.964625430318240e+00
	4.928089644955945e+00
	4.924446739745320e+00
	3.288465209941216e+00
	0.000000000000000e+00
	-6.578049842573819e-02
130		1.200240000000002e-03
	4.966350668439658e+00
	4.966350668439658e+00
	4.929816828220200e+00
	4.926175174478336e+00
	3.288465196169085e+00
	0.000000000000000e+00
	-6.575844244071050e-02
131		1.210240000000002e-03
	4.967991765705023e+00
	4.967991765705023e+00
	4.931455979831305e+00
	4.927813074293837e+00
	3.288465207836061e+00
	0.000000000000000e+00
	-6.578050419102510e-02
132		1.220240000000002e-03
	4.969552825712304e+00
	4.969552825712304e+00
	4.933018988572726e+00
	4.929377336814063e+00
	3.288465197952477e+00
	0.000000000000000e+00
	-6.575840749064810e-02
133		1.230240000000002e-03
	4.971037751924642e+00
	4.971037751924642e+00
	4.934501965993791e+00
	4.930859060421139e+00
	3.288465206325308e+00
	0.000000000000000e+00
	-6.578050481311948e-02
134		1.240240000000002e-03
	4.972450257431031e+00
	4.972450257431031e+00
	4.935916422733946e+00
	4.932274772547929e+00
	3.288465199232343e+00
	0.000000000000000e+00
	-6.575837977652554e-02
135		1.250240000000003e-03
	4.973793874230976e+00
	4.973793874230976e+00
	4.937258088542497e+00
	4.933615183126928e+00
	3.288465205241088e+00
	0.000000000000000e+00
	-6.578050204643660e-02
136		1.260240000000003e-03
	4.975071962066338e+00
	4.975071962066338e+00
	4.938538129329213e+00
	4.934896480405023e+00
	3.288465200150848e+00
	0.000000000000000e+00
	-6.575835753938009e-02
137		1.270240000000003e-03
	4.976287716822431e+00
	4.976287716822431e+00
	4.939751931567407e+00
	4.936109026431494e+00
	3.288465204462994e+00
	0.000000000000000e+00
	-6.578049711879430e-02
138		1.280240000000003e-03
	4.977444178519404e+00
	4.977444178519404e+00
	4.940910347373209e+00
	4.937268699473154e+00
	3.288465200809974e+00
	0.000000000000000e+00
	-6.575833949136722e-02
139		1.290240000000003e-03
	4.978544238913871e+00
	4.978544238913871e+00
	4.942008454207786e+00
	4.938365549425576e+00
	3.288465203904618e+00
	0.000000000000000e+00
	-6.578049088602711e-02
140		1.300240000000003e-03
	4.979590648729816e+00
	4.979590648729816e+00
	4.943056818889310e+00
	4.939415171829588e+00
	3.288465201283027e+00
	0.000000000000000e+00
	-6.575832468024601e-02
141		1.310240000000003e-03
	4.980586024536830e+00
	4.980586024536830e+00
	4.944050240442921e+00
	4.940407336054966e+00
	3.288465203503871e+00
	0.000000000000000e+00
	-6.578048393839708e-02
142		1.320240000000003e-03
	4.981532855292898e+00
	4.981532855292898e+00
	4.944999026534455e+00
	4.941357380171140e+00
	3.288465201622492e+00
	0.000000000000000e+00
	-6.575831240843399e-02
143		1.330240000000003e-03
	4.982433508568093e+00
	4.982433508568093e+00
	4.945897725114051e+00
	4.942254821138029e+00
	3.288465203216290e+00
	0.000000000000000e+00
	-6.578047667971987e-02
144		1.340240000000003e-03
	4.983290236464730e+00
	4.983290236464730e+00
	4.946756408611185e+00
	4.943114762830177e+00
	3.288465201866129e+00
	0.000000000000000e+00
	-6.575830214478628e-02
145		1.350240000000003e-03
	4.984105181248802e+00
	4.984105181248802e+00
	4.947569398438519e+00
	4.943926494876848e+00
	3.288465203009924e+00
	0.000000000000000e+00
	-6.578046937647741e-02
146		1.360240000000003e-03
	4.984880380706755e+00
	4.984880380706755e+00
	4.948346553615560e+00
	4.944704908325142e+00
	3.288465202040967e+00
	0.000000000000000e+00
	-6.575829350003914e-02
147		1.370240000000003e-03
	4.985617773241017e+00
	4.985617773241017e+00
	4.949081991062664e+00
	4.945439087907671e+00
	3.288465202861810e+00
	0.000000000000000e+00
	-6.578046221056866e-02
148		1.380240000000003e-03
	4.986319202717013e+00
	4.986319202717013e+00
	4.949785376272300e+00
	4.946143731397783e+00
	3.288465202166441e+00
	0.000000000000000e+00
	-6.575828616951185e-02
149		1.390240000000003e-03
	4.986986423073794e+00
	4.986986423073794e+00
	4.950450641505823e+00
	4.946807738743573e+00
	3.288465202755498e+00
	0.000000000000000e+00
	-6.578045528749499e-02
150		1.400240000000003e-03
	4.987621102709789e+00
	4.987621102709789e+00
	4.951087276815754e+00
	4.947445632295498e+00
	3.288465202256476e+00
	0.000000000000000e+00
	-6.575827992583072e-02
151		1.410240000000003e-03
	4.988224828654680e+00
	4.988224828654680e+00
	4.951689047669745e+00
	4.948046145282619e+00
	3.288465202679229e+00
	0.000000000000000e+00
	-6.578044867728750e-02
152		1.420240000000003e-03
	4.988799110537793e+00
	4.988799110537793e+00
	4.952265285114557e+00
	4.948623640897107e+00
	3.288465202321106e+00
	0.000000000000000e+00
	-6.575827458891581e-02
153		1.430240000000003e-03
	4.989345384362968e+00
	4.989345384362968e+00
	4.952809603930702e+00
	4.949166701899130e+00
	3.288465202624500e+00
	0.000000000000000e+00
	-6.578044240995951e-02
154		1.440240000000003e-03
	4.989865016099310e+00
	4.989865016099310e+00
	4.953331191079134e+00
	4.949689547120918e+00
	3.288465202367478e+00
	0.000000000000000e+00
	-6.575827001961443e-02
155		1.450240000000003e-03
	4.990359305096823e+00
	4.990359305096823e+00
	4.953823525185641e+00
	4.950180623489294e+00
	3.288465202585201e+00
	0.000000000000000e+00
	-6.578043650097243e-02
156		1.460240000000003e-03
	4.990829487335464e+00
	4.990829487335464e+00
	4.954295662660530e+00
	4.950654018924353e+00
	3.288465202400755e+00
	0.000000000000000e+00
	-6.575826610605873e-02
157		1.470240000000003e-03
	4.991276738515737e+00
	4.991276738515737e+00
	4.954740959094240e+00
	4.951098057712914e+00
	3.288465202556996e+00